320
Lattice="25.332509099124042 0.0049446186051152596 0.0436669415440586 0.06578866614170704 25.456373312097966 0.011517119998503201 0.29983198801084676 0.01754666940461521 25.078663088494867" Properties=species:S:1:pos:R:3:forces:R:3:momenta:R:3 energy=-903.8505249023438 stress="-0.0004539901565294712 0.00020024711557198313 0.0004828611272387206 0.00020024711557198313 0.0002687034138944 7.601348625030369e-05 0.0004828611272387206 7.601348625030369e-05 0.00019623772823251784" pbc="T T T"
Cs      14.49637985      12.00801972       6.67855941       0.14083888      -0.10606776       0.08234762      -5.36852865       0.76531045       2.26395982
Cs       8.72219790       6.14987567       5.89936604      -0.00439380       0.00566203      -0.11137238       0.30199304      -2.60037516      -1.93935284
Cs       8.97666975       5.79239131      12.25998150      -0.25420393       0.31840020       0.12784285      -1.24156556      -4.44046806       3.57399982
Cs      14.93001783      12.36170377      12.59363599      -0.16022007      -0.02366136       0.08992146      -1.90219236      -0.45814060      -0.59319410
Cs      14.00421682       5.79946755      11.88949473       0.19841795       0.06482060      -0.03132284      -0.64902805      -2.51333219       2.85758574
Cs       8.69930461      12.88073052      12.48548240       0.02416744      -0.03394722      -0.11404950      -1.51218678       0.15709134      -2.98681486
Cs       8.65243272      12.54280132       5.86803690       0.14372121       0.18651247       0.01898879       0.78193061       0.34734023      -1.44737470
Cs      14.57961986       5.64473359       6.42209101       0.06377657       0.09681039      -0.12837707      -2.60975359      -1.33513012      -1.35795436
Pb       5.60279092       3.09599311       8.91703507      -0.16460785      -0.01777846      -0.21403294       1.12192614       0.07213525      -3.30767122
Pb      11.53485238       9.12115368       9.19375952      -0.21697663       0.11762481      -0.21641832      -2.72438126      -4.60163677       4.69824015
Pb       5.28863745       9.41071748       8.72128799      -0.03215397      -0.03480048       0.09975070       1.58595384       3.37902722       0.94701353
Pb      11.80101751       2.57763597       8.59808670      -0.09807712       0.09426391       0.35061580       1.54847998      -3.21871322       2.86943685
Pb       5.40527202       2.59774990       2.76721947       0.03974646       0.16754952      -0.00770072      -1.93724331      -0.69937301       2.17333172
Pb      11.66694342       9.13903431       2.56103720      -0.18743790      -0.15473182       0.24148380      -6.02945111       0.40352971       2.94662181
Pb       5.29597348       9.14541188       2.61633481       0.13828355      -0.24991897       0.05540966      -1.03880713       3.38211648       2.28405712
Pb      12.02160363       2.74068426       2.42847098      -0.29817847       0.10173592       0.06725507       2.43174598       0.01720869      -0.66683174
I        5.34825264       6.23406167       7.86924683       0.24725949      -0.09013912       0.17064286       1.50864159      -0.45704951       0.27069193
I       11.90228666      12.49049286      10.00211661       0.05174995      -0.23433525      -0.05308986       4.46453200       1.31285210      -0.34627078
I       17.19348105      12.19471081       9.91175670       0.19665794       0.14455828      -0.15899357      -1.99755689       1.81212645       3.06326756
I       11.03959319       5.88268065       9.00006856       0.12904301       0.17228474      -0.17162774       0.23509161      -0.90236348      -4.57656444
I       14.66613995       8.58889256       9.00988166       0.02253507       0.03462795      -0.10332195      -0.28351439       3.24309438      -0.60715784
I        8.91894202      15.36139667       8.65114417      -0.27516674       0.03202409       0.03845627       2.20173744      -1.42432112       0.99002262
I        8.34121878       9.54101162       9.72577934       0.04963806       0.05772879      -0.03126438       1.08252340       1.07558579      -0.34101302
I       15.18987432       3.12401095       9.48445842      -0.60164008      -0.00959401      -0.01188580      -2.62415790      -6.49086813       1.48369473
I       18.52409950      12.32516075       2.40909519       0.04394410      -0.24355645       0.04796247      -0.01184234       0.87255586      -2.96381697
I       12.15555378       5.96232294       3.31079359       0.09311858      -0.01733795      -0.06567560      -2.68015418      -1.27644769      -0.85856395
I        5.41449370       5.90407930      15.70498416       0.01639705      -0.11063534       0.19793799      -3.28160635       0.49081463      -1.66862756
I       11.65024743      12.31155664      15.30929820      -0.09273078      -0.06931646      -0.21098617       1.02438786      -0.38572592       2.22203715
I        8.45894559       9.00393289      14.76404410       0.15542726       0.09237733       0.10800204      -2.82226287      -2.60582123       0.95134219
I       14.50889394       3.32281639      14.49612155       0.45465557      -0.03476403       0.08377173      -0.15854700       3.06923207       0.08748365
I       14.96594511       9.55544747       3.86695919      -0.47951928      -0.01725422      -0.07629153       2.27445127       0.93537856      -1.60546117
I        8.53727084      15.56182339       2.71461045      -0.08783765       0.14427703       0.12243917      -1.41381420      -0.83023205      -2.49741417
I        6.22349981      16.33976103      12.25050915       0.01367071      -0.07270724      -0.07475060       2.12135650       2.77117189       3.00690090
I       11.85663383       8.79803421      12.25735808       0.05888901       0.01380422      -0.00839290      -1.39192311      -0.16002879       1.06741122
I       17.64954348       1.40402940       6.04635559      -0.02846894       0.22838961      -0.13869176       3.04485857      -1.27760207      -1.56767997
I       10.97544107       9.59032939       5.92004101       0.12851526      -0.04719992       0.02129099      -0.77660790      -0.23777976      -2.29300859
I        6.05337815      10.07670196       5.72919165      -0.24890558      -0.19922475       0.04808435      -2.13763334      -1.77453101      -1.68870739
I       12.23936519      14.74611168       6.09895502      -0.22369280       0.20645444      -0.07598889       1.20384939      -0.10056150      -0.57345055
I       17.43899949       8.47810332      12.46982064      -0.05147962      -0.01986484      -0.13719377      -0.38176039       0.09491550       0.46817602
I       11.01471519       2.93883546      11.73400616       0.10877155      -0.14477941       0.25052553       0.01363998       2.99812773       1.48648765
Cs      15.21684309      11.71968053      18.54456359      -0.01370896       0.12175422       0.10234798      -2.55832473      -0.68524548      -2.34756433
Cs       8.55627246       6.12721164      18.54084952      -0.01732179       0.02515847      -0.19355008       1.81327850      -0.87184228      -0.11140638
Cs       8.61097125       6.26031042      23.64465585       0.04888559      -0.27917671       0.26190750       0.77944297      -2.92499535       0.62783777
Cs      15.36321574      11.57578641      25.40130832      -0.08959642      -0.11249825      -0.11495382       0.93056868      -1.11892870       1.80556861
Cs      15.23679569       4.98533518       0.07797942      -0.05207261       0.17938258      -0.03447097       0.01838346       1.42885839      -2.07763526
Cs       8.63595961      12.88563589      24.43726475      -0.02106943       0.02774395      -0.01609029       0.78088873      -1.81064364       2.45820063
Cs       8.20836139      12.21989112      18.02031917       0.09256121      -0.05473001      -0.00005907      -0.96032340       1.62568319       0.81982612
Cs      14.77082625       5.91707060      18.17380336       0.01284003      -0.14972946       0.13185882      -4.62544427       0.69527294       0.35755818
Pb       5.49310929       2.65387396      21.55224004      -0.15450465      -0.03659187       0.08851965      -0.21571751       1.83000121      -1.75002663
Pb      11.99398005       9.19766846      21.69771418      -0.17578185       0.08290632       0.00766434      -3.38001260      -1.72006785      -1.93432885
Pb       5.19636516       9.10249028      21.52794123       0.22996160       0.01362862       0.00012629      -2.55964865       1.73347597      -1.36809962
Pb      11.75194034       2.84754552      21.11033884       0.10357525       0.01906770       0.12986076      -2.48037622       1.86947787      -2.16830326
Pb       5.18820939       2.85813929      15.27208150       0.36258108      -0.09893116       0.13766675      -0.64746715       2.17855352      -0.02772104
Pb      11.75006960       9.22618874      15.27855854      -0.16351272      -0.24470556       0.36316532       0.37501647       0.54223003       4.35583639
Pb       5.28803574       9.09980476      15.06842054       0.00645471      -0.14754160       0.11212663       1.13087648      -1.00447009      -2.05478649
Pb      11.53915156       2.60341291      15.31034951       0.19182654      -0.04819489      -0.30149391      -3.23729500      -2.06378895      -2.06748189
I        5.51450937       5.94775002      20.71112952      -0.00393825      -0.09212104       0.05402487       0.68911429      -0.90966881      -0.10754519
I       12.37458579      12.40119922      22.81427513      -0.03694432      -0.25375270      -0.07740914      -1.57231969       1.45549296      -1.85854952
I       17.99036435      12.08083468      22.89124077       0.09796935       0.07247961      -0.22124502      -4.77170682       0.23159856      -5.05244354
I       11.81062635       6.06178594      20.86613879      -0.17604818      -0.01316473      -0.08047862      -2.98030517       4.69662397       2.64659073
I       15.01589048       8.85642656      21.31246641       0.13680274      -0.02194293      -0.12389895      -2.06085874       1.66520067      -2.37660266
I        8.89394904      14.63678581      20.79755616      -0.14004507       0.09539800       0.21027759      -2.15353518       1.47329966      -2.47704480
I        8.37454304       9.39374308      22.18897475       0.25432600       0.30484622      -0.14709081      -1.79254635      -0.60278892      -2.42208361
I       14.94187301       3.30444308      21.67057356      -0.24354354       0.10738345       0.00234274       0.46903956       2.71695060       0.51881119
I       18.32996652      12.27047146      14.87099322      -0.02797223       0.01807926       0.09042212       0.10573852       0.76137883      -0.35157894
I       11.34565031       6.04813528      15.88715687       0.09890161      -0.07388845       0.02010034       0.04650875      -2.30619400      -0.04010481
I        5.36184125       5.87526167       3.74658814      -0.15450677      -0.07435018      -0.26950265       0.70224444       1.90190388      -2.06168930
I       11.14560164      12.32752208       2.12986082      -0.08546340      -0.17275728       0.01410415       1.30745882       0.27657100       0.26773789
I        8.43134649       8.26685162       2.55258541       0.23676263       0.15293608      -0.19053764       0.92307467       1.71478085      -1.98714354
I       15.12244189       1.73254115       2.27342321      -0.14137405       0.15254877       0.04464052      -0.82737502      -1.74234235       0.57887195
I       14.99641882       8.86794140      16.11606439      -0.49738269       0.11801134      -0.09149652       0.26874607      -0.62762267      -1.61178791
I        8.44618162      15.89412840      15.76675940       0.23228872      -0.03922232       0.10269259      -1.36381478      -3.02645496      -1.47818767
I        6.08980492      16.37416379      24.53721687      -0.03192225      -0.07479841      -0.17506317      -0.79650708      -1.58670006      -1.40389283
I       12.69557579       8.31763385      24.74235626      -0.02021174      -0.02267282       0.04652779      -0.83011908       0.34786405       0.20442055
I       17.93416523       2.25244302      17.97758006      -0.03605332       0.01691266       0.49661677      -1.25768853       2.62056525       3.21369375
I       11.31679409       9.83494104      18.59092697       0.00763522      -0.03506600       0.10002042      -0.13224848      -0.07799714       2.63160693
I        5.40872746       9.66778764      18.29430053       0.03326439      -0.01156950       0.14967792      -0.92945446      -0.30513746       1.70220690
I       12.73411500      14.76900522      18.67429080       0.04056439      -0.07713596       0.10401117      -2.66064784      -2.72406978       1.46338079
I       17.78399537       8.22721073      25.26146198      -0.16920273       0.00567530      -0.33661251      -2.10476852       1.13983552      -0.92185754
I       11.46982677       3.28131843      24.21024751       0.05003096       0.07901523       0.32915624      -2.56479975       2.80037501       2.05587258
Cs      14.54694504      24.73649367       5.87568782       0.08032634       0.02278488       0.08994224      -1.18877153       2.26261715       0.21242640
Cs       8.86080792      18.64294619       5.40147159      -0.00192295       0.01025153       0.04105998      -3.00762786      -0.56326274       1.11392740
Cs       8.97589439      18.79591449      11.34433500       0.00710065       0.04856547       0.15042125       2.46616886      -0.18585398      -0.90280424
Cs      14.88779553      25.46647469      12.31875829      -0.03953903      -0.03094046      -0.11164855      -3.67364505      -2.44649705      -0.93212321
Cs      15.15516309      18.13133385      13.59627617       0.02782738       0.14547416      -0.22835451      -1.21102550      -3.91416442       1.07994814
Cs       8.35069501      25.50802564      11.46651868       0.09370565       0.09932304       0.30943447       2.35960952       0.05480031       0.51402902
Cs       8.50395638      24.79551384       4.86178989      -0.05298036       0.16824421       0.10804509       0.75499030      -2.83796406      -2.63180195
Cs      14.99777679      18.41692934       6.50671998      -0.31430860       0.06411641      -0.09679772       1.96786248      -2.06597768      -4.09219760
Pb       5.42203066      15.64824375       9.35134103       0.06984305      -0.13377498      -0.15232799       0.37617063       1.50977938       0.73128224
Pb      11.80985288      21.93312736       9.11359663      -0.03297225       0.10103857       0.02570743      -2.61060475      -1.95775229      -4.08019963
Pb       5.70801216      21.85521114       9.02010529      -0.27765886       0.17792367       0.05649956      -2.77503795      -0.35041084       0.65910323
Pb      12.07785082      15.61177167       9.26435064      -0.18524292      -0.14291257       0.00463458      -0.16323624       1.17533668      -2.80209745
Pb       5.13163510      15.52057376       3.11161953       0.17289414       0.30494667      -0.60348640       2.16697255       0.43860027      -0.29912310
Pb      11.87115221      22.03589248       2.75432284       0.08900780      -0.24250444       0.01750586      -1.42379274      -0.92637010      -1.79165639
Pb       5.40203020      21.80500777       2.70340277      -0.00560890      -0.00241713       0.39294178      -0.92262469       0.83687386      -3.04156510
Pb      11.73232109      15.37561004       2.88339080      -0.00518863       0.07288654       0.01599501       2.46922111      -2.16710813      -4.12163487
I        6.00760693      18.80258416       8.81164327       0.05001653       0.01240070      -0.18652980       1.27873935       0.60416024       3.21451485
I       12.41537813      25.14035876       9.62933370      -0.06694267      -0.11470942      -0.20023973      -1.41367537       0.99550146      -0.09874207
I       18.14782873      25.43663766       9.68511949      -0.09646098      -0.41429104       0.24979101      -0.13765090       0.13585602       0.29663529
I       11.70755207      18.77713362       8.77222981      -0.10020192       0.01339108      -0.18483823       4.43031273      -1.00831944       0.56741554
I       14.84668330      21.71330301       8.47673816       0.11249799       0.10318075      -0.04516295       0.66657169       1.06590236       0.30674329
I        8.59726043       2.33994914       8.27999885       0.04228587      -0.02273746      -0.12478148       2.28221961      -2.82869559      -0.44012015
I        8.67101146      22.55221253       9.45039525      -0.10094201      -0.19346491      -0.02264378       0.68369389      -4.26352401      -1.04413859
I       15.03419174      16.08265063      10.12218722       0.16147394       0.00858873       0.04179217       0.13685276      -0.44797435      -0.18284889
I       18.95812303      24.86599984       2.42625458       0.09384374       0.15109232      -0.13504841      -1.57548746      -0.65673401      -4.14807428
I       12.39427570      18.77286139       3.29367400      -0.13418150      -0.06143701       0.04288729      -1.32073766      -1.94623951      -2.86938745
I        4.97254308      18.67197376      15.79506149      -0.15621567      -0.10811278      -0.00193568      -0.31036107       0.43620823       0.13149086
I       11.76236859      24.99507188      14.50924620      -0.09693852      -0.04691379       0.10815448       1.06207980      -0.09427397       2.05178668
I        8.44204349      21.43963825      14.92752438       0.26982517      -0.05104722      -0.05452812       1.52512675      -0.50701280       2.58447473
I       15.09788770      14.86773527      15.28212726       0.05246802       0.06309628       0.14127291      -0.35082758      -1.65445775      -0.73141298
I       15.05282498      22.37627175       3.11004927      -0.16899742      -0.02923384       0.01736214      -0.63085958      -1.62231654       5.70072360
I        8.93244345       2.94322171       3.40733343      -0.17604935      -0.02997045      -0.05389683       2.90232682       2.06634658       1.35057527
I        5.87644114       3.72998442      11.94654970      -0.05094492      -0.17660229       0.03749029       1.51063259      -0.35399358       2.37577660
I       11.95765418      21.68174609      12.30519794       0.01612395      -0.19604080      -0.13618975      -0.87864463       0.93742903       0.81513246
I       16.81764892      15.11922810       6.36484186       0.17780750      -0.17755633       0.07929237      -1.89643128       0.65069498       2.28501828
I       11.06104361      22.41307557       5.92853356       0.14310240      -0.10303847      -0.11316938      -0.57217052      -1.25599557       0.55245887
I        5.46708185      22.78839113       6.09125134       0.14027405      -0.16163581      -0.28627437       2.76591518       2.83464648      -1.97209789
I       12.57663077       2.52323304       5.64022929       0.01669004      -0.09605302      -0.24537478       1.53026866      -0.49323469      -1.62396087
I       17.72041097      21.23875092      12.21993968      -0.04340653       0.02644577      -0.13876493      -0.58551758       0.41879714      -0.08267377
I       11.77220475      15.92267232      12.49781597      -0.20723184       0.07270821       0.06145633       5.94355490      -1.27494521      -0.11148437
Cs      15.32553398      25.26486737      18.03688858       0.07118250      -0.35242496       0.04884944       3.26837454       0.06426001       1.29287665
Cs       9.08011629      19.43913245      18.09179936      -0.04955758      -0.05036726       0.12408014      -1.08425371      -0.86894423       3.10281411
Cs       9.06823728      18.81231493      24.56165027       0.06095057      -0.06293720      -0.05232644       1.02598458      -1.48019737       0.68436955
Cs      15.08239679      24.56254608      24.94966982       0.04705491       0.02369578      -0.00075617       5.26633301      -0.58706577       1.67935355
Cs      14.96721050      18.16357626       0.01159611      -0.05400585       0.24223311       0.04471142       2.61306064       0.97757261      -0.61180139
Cs       9.02472918      25.59653363      24.26913007      -0.09992677      -0.06872856      -0.01833895      -0.68584076      -0.55866547       2.73876452
Cs       8.52782852      25.04460821      18.28724461      -0.14551232       0.07554256      -0.06256002       2.07081013      -0.70939557      -2.61551056
Cs      15.70289751      18.05254321      18.82050415      -0.30317194      -0.01113731       0.00385905      -0.25450332       3.38869566       0.66452780
Pb       5.75968424      15.52487392      21.46389378       0.02230240      -0.18474055       0.02318556      -1.60056697      -2.52315429      -1.08025975
Pb      11.76925517      22.16972975      21.92638887       0.04960968      -0.71036843      -0.32420767      -4.05129160       0.07625706      -2.36864247
Pb       5.44268889      21.04191608      21.88858943       0.09079031       0.23444018      -0.52992655      -0.40760616       1.02340237      -2.32584699
Pb      12.21094232      15.29858903      21.79420789      -0.42308331       0.14578024      -0.17021966      -0.95999913      -0.04232027      -0.36403064
Pb       5.38477287      15.60554231      15.21859711      -0.15227413      -0.17071478       0.13340314      -0.68930547      -1.02107772      -0.48489226
Pb      11.92768656      21.70810388      15.44769201       0.03569078       0.15088412      -0.07679534      -2.82717104       0.60131874       5.78051257
Pb       5.25681516      21.74621758      15.16734491       0.34730436       0.21783028       0.17077848       2.98531914      -3.69898474       5.00459493
Pb      11.60133776      15.39067435      15.81163086       0.09846844       0.05418808      -0.12313286       2.13781167       2.36814798      -0.81249173
I        6.04489762      18.29575450      20.16399783      -0.02067745       0.26052361       0.16963485      -1.83013285       0.71686312       3.26077470
I       12.39803768      24.97858640      22.16324855       0.02059177       0.64934632      -0.01251059      -1.10846101       1.19553621       0.81964516
I       17.25732299      24.63856961      22.05654596       0.09205399       0.74774622      -0.00763959      -1.44123330      -0.52034092      -1.97109881
I       11.69663237      18.75703451      21.10425747      -0.11200865      -0.12459246       0.05715521       4.54926249      -2.05613914      -1.86903121
I       14.81139486      21.42171443      20.82355428      -0.07496477      -0.05750414      -0.09701426       0.82665638      -2.75347516      -2.94340972
I        8.62169051       2.41994763      21.07671663       0.09330861       0.01719259      -0.27351614       1.18237689       0.12559431       0.61255009
I        8.54290041      21.95216289      22.16144173      -0.15792858      -0.09631345       0.04139441      -1.57877398      -1.96354022       1.59651586
I       15.15121630      15.62604308      22.17319079       0.25234065       0.07206189      -0.05321142       0.99949795      -1.69119989       1.57649493
I       17.67205162      25.16386710      14.59370827       0.20676786      -0.05198094      -0.01571245      -1.63914836      -0.08245066      -2.05495670
I       12.39173798      18.32057493      16.29250361       0.06262525       0.53235637       0.05181170       5.57526825      -1.50909780      -1.88469812
I        5.02878154      18.54348072       4.19634892       0.11531768       0.12670769      -0.18750896      -1.69792728       0.44207474      -2.30340982
I       11.17062658      25.04399278       1.95806932       0.12899619       0.04250226       0.09766238      -2.10620819      -1.15211693       4.24587906
I        8.47285396      21.38283449       2.34683387       0.24975873      -0.11702086       0.03311628      -0.76616478       3.15510837       2.91563842
I       14.66702816      14.17405776       2.82235463       0.11870329       0.18255219      -0.02104682       1.60419076      -0.62649742       2.24384143
I       15.10066811      22.24508398      15.48071757      -0.20303328      -0.15342455       0.08111456       2.85478268       0.91102288       0.30539493
I        8.63182813       2.92961470      15.76068068      -0.56175694      -0.00570394       0.15073858      -2.73087360       0.70588029      -3.07855892
I        6.66684558       3.14326629      24.55488982      -0.21754310       0.12340553       0.23160393       0.62878177       0.94537286      -1.66865140
I       13.08716986      21.53594539      24.67240244      -0.23458507      -0.25375622       0.15394078      -0.04333431       1.29642230       0.45733090
I       17.96167111      14.54500532      18.86297084      -0.09496252      -0.05863423      -0.01540987      -0.92025737      -0.85319616      -1.57009778
I       11.42136796      22.74366010      18.37681290      -0.02952141      -0.09422894       0.10981612      -1.31878759      -2.43741798      -1.56906036
I        5.71717782      22.32441159      18.50278930       0.05008373      -0.06253730       0.04735749       1.61885303       0.73831096      -0.52436972
I       12.34224541       1.80925422      18.11786457      -0.12696745       0.09664386       0.18937357       2.78783637       1.24409123       0.56238097
I       17.73287897      21.22145365      24.82851897       0.05586315      -0.01994419      -0.10209930       1.10000003       2.50470660       1.98437679
I       12.06711046      16.24384298      24.83130430      -0.20808825       0.06518396       0.13356376       1.73254537       0.47046752       1.04305073
Cs       2.13207791      12.16137054       5.03918242      -0.04226547       0.04783522       0.25842816      -1.29212643       0.17161062       1.05668790
Cs      21.05989039       6.13320724       5.54262933      -0.03162935      -0.09185180       0.14857542       1.94472571       3.19662058      -1.57905307
Cs      21.68443385       6.29457053      11.31955977      -0.10780425      -0.07920550       0.19535041      -1.92016707       1.24673105      -0.99818925
Cs       1.68160340      11.57185930      12.51597043       0.25778346       0.09755484       0.06744749      -0.37554274      -1.75543312      -1.94655822
Cs       2.34777647       5.94530361      12.08262340       0.05805725      -0.09252548      -0.14112230      -1.49472964       0.50323295       2.18694244
Cs      21.14580170      12.18130508      12.44086827       0.04416452       0.07008940       0.02407890      -0.80231637       1.52178347       0.61343756
Cs      21.52226065      12.62497663       5.88229650      -0.12519010      -0.02561908      -0.16626139       0.57467561       1.82755769       0.03297872
Cs       2.09694959       5.80773536       5.74454958       0.11049938       0.01442315       0.06113262       1.09726841      -0.96526856      -3.41746510
Pb      18.27310682       3.02834553       9.04359120      -0.41385586       0.02325511       0.03525485       0.90514502       1.34318654      -2.51120509
Pb      24.28840539       9.67712789       9.11356484       0.11941317      -0.23684907       0.12920542      -1.56839795      -1.72681588      -2.94653985
Pb      17.80926214       9.17131019       9.43422593       0.07279400       0.06154095      -0.06637068       0.62768436       1.27460739      -1.85020503
Pb      24.50433660       3.09321766       8.65483153      -0.14092615      -0.15054355       0.32168127       0.64466356       2.53290743       2.43029025
Pb      18.07919840       2.73067627       2.99549830       0.10992540      -0.22187650       0.14028124      -0.22099366       0.69175335      -1.32986694
Pb      23.87224162       8.85857745       2.81998548       0.03001326       0.15711230       0.27972824       0.89123001       2.01692689       1.57948836
Pb      17.88474243       9.29410473       3.33994013       0.26935843      -0.02767117      -0.12948599      -3.20464498       0.57834120       0.27002265
Pb      24.51401429       2.36388784       2.92533007      -0.17877364       0.13029245      -0.20239174       2.15599372      -2.51191230      -1.35720704
I       17.99314481       6.09789675       8.36107427       0.15481649       0.17703629      -0.19775891      -0.69720528      -0.00816086      -0.95284501
I       24.32483133      12.59353089      10.20891829       0.03348027      -0.00985827      -0.04209030      -0.59746081      -0.16654884       0.66718249
I        4.66898123      12.60270774       9.51879473       0.04229259      -0.25821854       0.05499743      -1.40777871       1.33511102      -0.79645701
I       23.81942993       6.07975350       8.29028074       0.04981988       0.11429021      -0.20762936      -0.26365014      -0.96662704      -0.14634154
I        2.23288577       8.43676095       8.50633213      -0.11176058       0.26805152       0.04706377       1.60895400      -1.76135159       0.88242751
I       21.14230251      15.09892974       8.40959435      -0.01218407       0.18164331       0.16468846       0.48082848       2.57456179       0.07472944
I       21.18878054       9.65216222       9.61897305      -0.08038927      -0.03778664      -0.02614356       1.30691760       0.52041839      -1.11614671
I        2.20350028       3.46105876       8.80581320       0.16057978       0.00402567       0.15321257      -1.79333538      -1.38665681      -1.27211955
I        5.50222784      12.35272748       2.31371803       0.18171250      -0.14878865      -0.18720346       2.93624541       0.10649672      -0.01869565
I       24.77724023       5.83542406       3.29163202      -0.15117899      -0.01715536       0.05247470       1.17058716      -0.52730585       0.88103695
I       18.28748358       5.82064319      16.00966750      -0.08650826       0.11069390       0.11077854      -0.15779271      -3.03553330      -1.56437048
I       24.16759102      12.00511402      15.28854977      -0.06478053       0.09647267      -0.11280546       1.25236923      -0.23528308      -2.37430736
I       21.02021620       8.85557501      14.94540374       0.21934307       0.05493960      -0.20405936       0.72124964      -0.09088168      -0.80079587